<?xml version="1.0" encoding="UTF-8"?>

<!-- generated on Fri Oct 19 15:35:00 2018 by SUMO Version 0.32.0
<?xml version="1.0" encoding="UTF-8"?>

<configuration xmlns:xsi="http://www.w3.org/2001/XMLSchema-instance" xsi:noNamespaceSchemaLocation="http://sumo.dlr.de/xsd/sumoConfiguration.xsd">

    <input>
        <net-file value="../scenario/lust.net.xml"/>
        <route-files value="../scenario/buslines.rou.xml,../scenario/DUARoutes/local.0.rou.xml,../scenario/DUARoutes/local.1.rou.xml,../scenario/DUARoutes/local.2.rou.xml,../scenario/transit.rou.xml"/>
        <additional-files value="../scenario/vtypes.add.xml,%20%20%20%20%20%20%20%20%20%20%20%20%20%20%20%20%20%20%20%20%20%20%20%20../scenario/busstops.add.xml,%20../scenario/e1detectors.add.xml,%20%20%20%20%20%20%20%20%20%20%20%20%20%20%20%20%20%20%20%20%20%20%20%20%20../scenario/lust.poly.xml,%20../scenario/tll.static.xml,%20../scenario/additional/additional0.xml"/>
    </input>

    <output>
        <vehroute-output value="../output/temp_routes/vehroutes0.xml"/>
        <vehroute-output.exit-times value="true"/>
    </output>

    <time>
        <begin value="0"/>
        <step-length value="1"/>
    </time>

    <processing>
        <ignore-junction-blocker value="20"/>
        <ignore-route-errors value="true"/>
        <time-to-teleport value="300"/>
        <max-depart-delay value="600"/>
    </processing>

    <routing>
        <routing-algorithm value="dijkstra"/>
        <device.rerouting.probability value="0.7"/>
        <device.rerouting.period value="300"/>
        <device.rerouting.pre-period value="300"/>
    </routing>

    <report>
        <verbose value="false"/>
        <no-warnings value="true"/>
    </report>

    <traci_server>
        <remote-port value="49365"/>
    </traci_server>

    <gui_only>
        <tracker-interval value="1"/>
    </gui_only>

</configuration>
