<?xml version="1.0" encoding="UTF-8"?>

<!-- generated on Wed Mar  6 12:32:00 2019 by Eclipse SUMO Version 1.1.0
<configuration xmlns:xsi="http://www.w3.org/2001/XMLSchema-instance" xsi:noNamespaceSchemaLocation="http://sumo.dlr.de/xsd/sumoConfiguration.xsd">

    <input>
        <net-file value="../scenario/lust.net.xml"/>
        <additional-files value="../scenario/vtypes.add_0.xml,%20%20%20%20%20%20%20%20%20%20%20%20%20%20%20%20%20%20%20%20%20%20%20%20../scenario/busstops.add_0.xml,%20%20%20%20%20%20%20%20%20%20%20%20%20%20%20%20%20%20%20%20%20%20%20%20%20../scenario/lust.poly_0.xml,%20../scenario/tll.static_0.xml,%20../scenario/additional/additional0.xml"/>
    </input>

    <output>
        <summary-output value="../scenario/dua.actuated.summary.xml"/>
        <tripinfo-output value="../scenario/dua.actuated.tripinfo.xml"/>
        <vehroute-output value="/project/umd_lance_fiondella/sumo_output/temp_routes/vehroutes0.xml"/>
        <vehroute-output.exit-times value="true"/>
    </output>

    <time>
        <begin value="0"/>
        <step-length value="1"/>
    </time>

    <processing>
        <ignore-junction-blocker value="20"/>
        <ignore-route-errors value="true"/>
        <time-to-teleport value="3600"/>
        <max-depart-delay value="600"/>
    </processing>

    <routing>
        <routing-algorithm value="dijkstra"/>
        <device.rerouting.probability value="0.7"/>
        <device.rerouting.period value="300"/>
        <device.rerouting.pre-period value="300"/>
    </routing>

    <report>
        <verbose value="false"/>
        <no-warnings value="true"/>
        <log value="../scenario/dua.actuated.log"/>
        <no-step-log value="true"/>
    </report>

    <traci_server>
        <remote-port value="35111"/>
    </traci_server>

    <gui_only>
        <tracker-interval value="1"/>
    </gui_only>

</configuration>
-->

<tripinfos xmlns:xsi="http://www.w3.org/2001/XMLSchema-instance" xsi:noNamespaceSchemaLocation="http://sumo.dlr.de/xsd/tripinfo_file.xsd">
    <tripinfo id="randUni4182:1" depart="679.00" departLane="-31876#2_0" departPos="5.10" departSpeed="0.00" departDelay="0.00" arrival="737.00" arrivalLane="-31340#0_0" arrivalPos="641.03" arrivalSpeed="14.71" duration="58.00" routeLength="764.13" waitingTime="0.00" waitingCount="0" stopTime="0.00" timeLoss="5.13" rerouteNo="0" devices="vehroute_randUni4182:1 tripinfo_randUni4182:1" vType="passenger1" speedFactor="1.06" vaporized=""/>
    <tripinfo id="randUni13901:1" depart="786.00" departLane="-31876#2_0" departPos="4.60" departSpeed="0.00" departDelay="0.00" arrival="848.00" arrivalLane="-31340#0_0" arrivalPos="641.03" arrivalSpeed="13.10" duration="62.00" routeLength="764.63" waitingTime="0.00" waitingCount="0" stopTime="0.00" timeLoss="5.77" rerouteNo="0" devices="vehroute_randUni13901:1 tripinfo_randUni13901:1 routing_randUni13901:1" vType="passenger2b" speedFactor="0.98" vaporized=""/>
    <tripinfo id="randUni11559:1" depart="829.00" departLane="--31340#0_0" departPos="5.10" departSpeed="0.00" departDelay="0.00" arrival="899.00" arrivalLane="-31876#4_0" arrivalPos="43.90" arrivalSpeed="11.52" duration="70.00" routeLength="791.45" waitingTime="0.00" waitingCount="0" stopTime="0.00" timeLoss="7.45" rerouteNo="1" devices="vehroute_randUni11559:1 tripinfo_randUni11559:1 routing_randUni11559:1" vType="passenger1" speedFactor="0.92" vaporized=""/>
    <tripinfo id="randUni12682:1" depart="991.00" departLane="--31340#0_0" departPos="7.10" departSpeed="0.00" departDelay="0.00" arrival="1055.00" arrivalLane="-31876#4_0" arrivalPos="43.90" arrivalSpeed="14.12" duration="64.00" routeLength="789.45" waitingTime="0.00" waitingCount="0" stopTime="0.00" timeLoss="8.32" rerouteNo="1" devices="vehroute_randUni12682:1 tripinfo_randUni12682:1 routing_randUni12682:1" vType="passenger5" speedFactor="1.03" vaporized=""/>
    <tripinfo id="randUni18526:1" depart="1295.00" departLane="-31876#2_0" departPos="5.10" departSpeed="0.00" departDelay="0.00" arrival="1319.00" arrivalLane="-32182_1" arrivalPos="125.60" arrivalSpeed="29.09" duration="24.00" routeLength="357.40" waitingTime="0.00" waitingCount="0" stopTime="0.00" timeLoss="6.81" rerouteNo="1" devices="vehroute_randUni18526:1 tripinfo_randUni18526:1 routing_randUni18526:1" vType="passenger1" speedFactor="1.16" vaporized=""/>
    <tripinfo id="randUni7384:1" depart="1850.00" departLane="-31876#2_0" departPos="7.10" departSpeed="0.00" departDelay="0.00" arrival="1879.00" arrivalLane="-32182_1" arrivalPos="125.60" arrivalSpeed="23.59" duration="29.00" routeLength="355.40" waitingTime="0.00" waitingCount="0" stopTime="0.00" timeLoss="6.78" rerouteNo="1" devices="vehroute_randUni7384:1 tripinfo_randUni7384:1 routing_randUni7384:1" vType="passenger5" speedFactor="0.89" vaporized=""/>
    <tripinfo id="randUni1067:1" depart="2179.00" departLane="-31876#2_0" departPos="4.60" departSpeed="0.00" departDelay="0.00" arrival="2241.00" arrivalLane="-31340#0_0" arrivalPos="641.03" arrivalSpeed="13.17" duration="62.00" routeLength="764.63" waitingTime="0.00" waitingCount="0" stopTime="0.00" timeLoss="5.22" rerouteNo="0" devices="vehroute_randUni1067:1 tripinfo_randUni1067:1 routing_randUni1067:1" vType="passenger2a" speedFactor="0.99" vaporized=""/>
    <tripinfo id="randUni660:1" depart="3053.00" departLane="-31876#2_0" departPos="4.60" departSpeed="0.00" departDelay="0.00" arrival="3081.00" arrivalLane="-32182_1" arrivalPos="125.60" arrivalSpeed="25.87" duration="28.00" routeLength="357.90" waitingTime="0.00" waitingCount="0" stopTime="0.00" timeLoss="6.66" rerouteNo="1" devices="vehroute_randUni660:1 tripinfo_randUni660:1 routing_randUni660:1" vType="passenger2a" speedFactor="0.93" vaporized=""/>
    <tripinfo id="randUni1252:1" depart="3196.00" departLane="-31876#2_0" departPos="5.10" departSpeed="0.00" departDelay="0.00" arrival="3263.00" arrivalLane="-31340#0_0" arrivalPos="641.03" arrivalSpeed="11.48" duration="67.00" routeLength="764.13" waitingTime="0.00" waitingCount="0" stopTime="0.00" timeLoss="6.23" rerouteNo="0" devices="vehroute_randUni1252:1 tripinfo_randUni1252:1" vType="passenger1" speedFactor="0.92" vaporized=""/>
    <tripinfo id="randUni9525:1" depart="3241.00" departLane="-31876#2_0" departPos="5.10" departSpeed="0.00" departDelay="0.00" arrival="3307.00" arrivalLane="-31340#0_0" arrivalPos="641.03" arrivalSpeed="12.02" duration="66.00" routeLength="764.13" waitingTime="0.00" waitingCount="0" stopTime="0.00" timeLoss="5.73" rerouteNo="0" devices="vehroute_randUni9525:1 tripinfo_randUni9525:1 routing_randUni9525:1" vType="passenger1" speedFactor="0.92" vaporized=""/>
    <tripinfo id="randUni14431:1" depart="3733.00" departLane="-31876#2_0" departPos="4.60" departSpeed="0.00" departDelay="0.00" arrival="3759.00" arrivalLane="-32182_1" arrivalPos="125.60" arrivalSpeed="27.50" duration="26.00" routeLength="357.90" waitingTime="0.00" waitingCount="0" stopTime="0.00" timeLoss="6.99" rerouteNo="1" devices="vehroute_randUni14431:1 tripinfo_randUni14431:1 routing_randUni14431:1" vType="passenger2b" speedFactor="1.04" vaporized=""/>
    <tripinfo id="randUni17743:1" depart="3841.00" departLane="--31340#0_0" departPos="5.10" departSpeed="0.00" departDelay="0.00" arrival="3910.00" arrivalLane="-32182_0" arrivalPos="125.60" arrivalSpeed="25.33" duration="69.00" routeLength="870.44" waitingTime="0.00" waitingCount="0" stopTime="0.00" timeLoss="10.64" rerouteNo="1" devices="vehroute_randUni17743:1 tripinfo_randUni17743:1 routing_randUni17743:1" vType="passenger1" speedFactor="0.98" vaporized=""/>
    <tripinfo id="randUni8080:1" depart="3899.00" departLane="-31876#2_0" departPos="5.10" departSpeed="0.00" departDelay="0.00" arrival="3925.00" arrivalLane="-32182_1" arrivalPos="125.60" arrivalSpeed="27.66" duration="26.00" routeLength="357.40" waitingTime="0.00" waitingCount="0" stopTime="0.00" timeLoss="7.98" rerouteNo="1" devices="vehroute_randUni8080:1 tripinfo_randUni8080:1 routing_randUni8080:1" vType="passenger1" speedFactor="1.12" vaporized=""/>
    <tripinfo id="randUni9846:1" depart="3940.00" departLane="-31876#2_0" departPos="5.10" departSpeed="0.00" departDelay="0.00" arrival="3967.00" arrivalLane="-32182_1" arrivalPos="125.60" arrivalSpeed="25.13" duration="27.00" routeLength="357.40" waitingTime="0.00" waitingCount="0" stopTime="0.00" timeLoss="7.21" rerouteNo="1" devices="vehroute_randUni9846:1 tripinfo_randUni9846:1 routing_randUni9846:1" vType="passenger1" speedFactor="1.00" vaporized=""/>
    <tripinfo id="randUni4650:1" depart="4087.00" departLane="-31876#2_0" departPos="5.10" departSpeed="0.00" departDelay="0.00" arrival="4112.00" arrivalLane="-32182_1" arrivalPos="125.60" arrivalSpeed="27.67" duration="25.00" routeLength="357.40" waitingTime="0.00" waitingCount="0" stopTime="0.00" timeLoss="7.08" rerouteNo="1" devices="vehroute_randUni4650:1 tripinfo_randUni4650:1 routing_randUni4650:1" vType="passenger1" speedFactor="1.12" vaporized=""/>
    <tripinfo id="randUni15899:1" depart="4193.00" departLane="--31340#0_0" departPos="6.10" departSpeed="0.00" departDelay="0.00" arrival="4264.00" arrivalLane="-32182_0" arrivalPos="125.60" arrivalSpeed="26.39" duration="71.00" routeLength="869.44" waitingTime="0.00" waitingCount="0" stopTime="0.00" timeLoss="10.14" rerouteNo="1" devices="vehroute_randUni15899:1 tripinfo_randUni15899:1 routing_randUni15899:1" vType="passenger3" speedFactor="0.94" vaporized=""/>
    <tripinfo id="randUni7076:1" depart="4278.00" departLane="--31340#0_0" departPos="4.60" departSpeed="0.00" departDelay="0.00" arrival="4341.00" arrivalLane="-32182_0" arrivalPos="125.60" arrivalSpeed="27.32" duration="63.00" routeLength="870.94" waitingTime="0.00" waitingCount="0" stopTime="0.00" timeLoss="10.33" rerouteNo="1" devices="vehroute_randUni7076:1 tripinfo_randUni7076:1 routing_randUni7076:1" vType="passenger2b" speedFactor="1.08" vaporized=""/>
    <tripinfo id="randUni5975:1" depart="4637.00" departLane="-31876#2_0" departPos="5.10" departSpeed="0.00" departDelay="0.00" arrival="4663.00" arrivalLane="-32182_1" arrivalPos="125.60" arrivalSpeedvalPos="694.09" arrivalSpeed="13.97" duration="96.00" routeLength="1255.72" waitingTime="0.00" waitingCount="0" stopTime="0.00" timeLoss="7.24" rerouteNo="1" devices="vehroute_randUni16886:1 tripinfo_randUni16886:1 routing_randUni16886:1" vType="passenger2b" speedFactor="1.03" vaporized=""/>
    <tripinfo id="randUni15095:1" depart="2545.00" departLane="-30648#15_0" departPos="4.60" departSpeed="0.00" departDelay="0.00" arrival="2683.00" arrivalLane="-31492#1_0" arrivalPos="186.01" arrivalSpeed="14.86" duration="138.00" routeLength="1258.09" waitingTime="40.00" waitingCount="1" stopTime="0.00" timeLoss="52.68" rerouteNo="0" devices="vehroute_randUni15095:1 tripinfo_randUni15095:1 routing_randUni15095:1" vType="passenger2a" speedFactor="1.07" vaporized=""/>
    <tripinfo id="randUni8296:1" depart="2852.00" departLane="--31492#1_0" departPos="5.10" departSpeed="0.00" departDelay="0.00" arrival="2945.00" arrivalLane="--30648#15_0" arrivalPos="694.09" arrivalSpeed="13.82" duration="93.00" routeLength="1255.22" waitingTime="0.00" waitingCount="0" stopTime="0.00" timeLoss="6.80" rerouteNo="1" devices="vehroute_randUni8296:1 tripinfo_randUni8296:1 routing_randUni8296:1" vType="passenger1" speedFactor="1.06" vaporized=""/>
    <tripinfo id="randUni9571:1" depart="3047.00" departLane="--31492#1_0" departPos="5.60" departSpeed="0.00" departDelay="0.00" arrival="3088.00" arrivalLane="--32404#3_0" arrivalPos="274.04" arrivalSpeed="15.19" duration="41.00" routeLength="505.41" waitingTime="0.00" waitingCount="0" stopTime="0.00" timeLoss="7.66" rerouteNo="0" devices="vehroute_randUni9571:1 tripinfo_randUni9571:1 routing_randUni9571:1" vType="passenger4" speedFactor="1.10" vaporized=""/>
    <tripinfo id="randUni12038:1" depart="2951.00" departLane="--31492#1_0" departPos="5.60" departSpeed="0.00" departDelay="0.00" arrival="3097.00" arrivalLane="--30648#15_0" arrivalPos="694.09" arrivalSpeed="12.95" duration="146.00" routeLength="1254.72" waitingTime="41.00" waitingCount="1" stopTime="0.00" timeLoss="53.21" rerouteNo="1" devices="vehroute_randUni12038:1 tripinfo_randUni12038:1 routing_randUni12038:1" vType="passenger4" speedFactor="0.98" vaporized=""/>
    <tripinfo id="randUni926:1" depart="3529.00" departLane="-30648#15_0" departPos="6.10" departSpeed="0.00" departDelay="0.00" arrival="3646.00" arrivalLane="-31492#1_0" arrivalPos="186.01" arrivalSpeed="13.74" duration="117.00" routeLength="1256.59" waitingTime="14.00" waitingCount="1" stopTime="0.00" timeLoss="27.36" rerouteNo="0" devices="vehroute_randUni926:1 tripinfo_randUni926:1 routing_randUni926:1" vType="passenger3" speedFactor="1.01" vaporized=""/>
    <tripinfo id="randUni9115:1" depart="3539.00" departLane="--31492#1_0" departPos="4.60" departSpeed="0.00" departDelay="0.00" arrival="3647.00" arrivalLane="--30648#15_0" arrivalPos="694.09" arrivalSpeed="15.90" duration="108.00" routeLength="1255.72" waitingTime="19.00" waitingCount="1" stopTime="0.00" timeLoss="32.04" rerouteNo="1" devices="vehroute_randUni9115:1 tripinfo_randUni9115:1 routing_randUni9115:1" vType="passenger2b" speedFactor="1.21" vaporized=""/>
    <tripinfo id="randUni7786:1" depart="3527.00" departLane="--31492#1_0" departPos="5.10" departSpeed="0.00" departDelay="0.00" arrival="3656.00" arrivalLane="--30648#15_0" arrivalPos="694.09" arrivalSpeed="13.50" duration="129.00" routeLength="1255.22" waitingTime="26.00" waitingCount="1" stopTime="0.00" timeLoss="37.72" rerouteNo="1" devices="vehroute_randUni7786:1 tripinfo_randUni7786:1 routing_randUni7786:1" vType="passenger1" speedFactor="1.00" vaporized=""/>
    <tripinfo id="randUni9828:1" depart="3530.00" departLane="--31492#1_0" departPos="5.10" departSpeed="0.00" departDelay="0.00" arrival="3664.00" arrivalLane="--30648#15_0" arrivalPos="694.09" arrivalSpeed="11.70" duration="134.00" routeLength="1255.22" waitingTime="12.00" waitingCount="2" stopTime="0.00" timeLoss="28.85" rerouteNo="1" devices="vehroute_randUni9828:1 tripinfo_randUni9828:1 routing_randUni9828:1" vType="passenger1" speedFactor="0.86" vaporized=""/>
    <tripinfo id="randUni16719:1" depart="3611.00" departLane="-30648#15_0" departPos="5.10" departSpeed="0.00" departDelay="0.00" arrival="3727.00" arrivalLane="-31492#1_0" arrivalPos="186.01" arrivalSpeed="13.02" duration="116.00" routeLength="1257.59" waitingTime="9.00" waitingCount="1" stopTime="0.00" timeLoss="21.88" rerouteNo="0" devices="vehroute_randUni16719:1 tripinfo_randUni16719:1 routing_randUni16719:1" vType="passenger1" speedFactor="0.96" vaporized=""/>
    <tripinfo id="AVL---_CN_4_2" depart="3628.00" departLane="-30648#15_0" departPos="12.10" departSpeed="0.00" departDelay="0.00" arrival="3729.00" arrivalLane="-31492#1_1" arrivalPos="186.01" arrivalSpeed="13.00" duration="101.00" routeLength="1250.59" waitingTime="0.00" waitingCount="0" stopTime="0.00" timeLoss="7.54" rerouteNo="0" devices="vehroute_AVL---_CN_4_2 tripinfo_AVL---_CN_4_2" vType="bus" speedFactor="0.97" vaporized=""/>
    <tripinfo id="randUni3289:1" depart="3716.00" departLane="--31492#1_0" departPos="5.10" departSpeed="0.00" departDelay="0.00" arrival="3817.00" arrivalLane="--30648#15_0" arrivalPos="694.09" arrivalSpeed="12.98" duration="101.00" routeLength="1255.22" waitingTime="0.00" waitingCount="0" stopTime="0.00" timeLoss="6.95" rerouteNo="1" devices="vehroute_randUni3289:1 tripinfo_randUni3289:1 routing_randUni3289:1" vType="passenger1" speedFactor="0.97" vaporized=""/>
    <tripinfo id="randUni2903:1" depart="3718.00" departLane="--31492#1_0" departPos="4.60" departSpeed="0.00" departDelay="1.00" arrival="3838.00" arrivalLane="--30648#15_0" arrivalPos="694.09" arrivalSpeed="10.31" duration="120.00" routeLength="1255.72" waitingTime="0.00" waitingCount="0" stopTime="0.00" timeLoss="10.09" rerouteNo="1" devices="vehroute_randUni2903:1 tripinfo_randUni2903:1 routing_randUni2903:1" vType="passenger2a" speedFactor="0.83" vaporized=""/>
    <tripinfo id="randUni6276:1" depart="3862.00" departLane="--30988#3_0" departPos="4.60" departSpeed="0.00" departDelay="0.00" arrival="3873.00" arrivalLane="--30988#3_0" arrivalPos="125.50" arrivalSpeed="15.52" duration="11.00" routeLength="120.90" waitingTime="0.00" waitingCount="0" stopTime="0.00" timeLoss="3.15" rerouteNo="0" devices="vehroute_randUni6276:1 tripinfo_randUni6276:1" vType="passenger2b" speedFactor="0.81" vaporized=""/>
    <tripinfo id="AVL---_CN_4_5" depart="3824.00" departLane="--31492#1_0" departPos="12.10" departSpeed="0.00" departDelay="0.00" arrival="3983.00" arrivalLane="--30648#15_0" arrivalPos="694.09" arrivalSpeed="12.03" duration="159.00" routeLength="1248.22" waitingTime="42.00" waitingCount="1" stopTime="0.00" timeLoss="56.59" rerouteNo="1" devices="vehroute_AVL---_CN_4_5 tripinfo_AVL---_CN_4_5 routing_AVL---_CN_4_5" vType="bus" speedFactor="0.88" vaporized=""/>
    <tripinfo id="randUni2426:1" depart="3913.00" departLane="--31492#1_0" departPos="5.10" departSpeed="0.00" departDelay="0.00" arrival="4053.00" arrivalLane="--30648#15_0" arrivalPos="694.09" arrivalSpeed="13.84" duration="140.00" routeLength="1255.22" waitingTime="41.00" waitingCount="1" stopTime="0.00" timeLoss="53.61" rerouteNo="1" devices="vehroute_randUni2426:1 tripinfo_randUni2426:1 routing_randUni2426:1" vType="passenger1" speedFactor="1.05" vaporized=""/>
    <tripinfo id="randUni9629:1" depart="3969.00" departLane="--31492#1_0" departPos="5.10" departSpeed="0.00" departDelay="0.00" arrival="4089.00" arrivalLane="--30648#15_0" arrivalPos="694.09" arrivalSpeed="10.59" duration="120.00" routeLength="1255.22" waitingTime="0.00" waitingCount="0" stopTime="0.00" timeLoss="8.45" rerouteNo="1" devices="vehroute_randUni9629:1 tripinfo_randUni9629:1 routing_randUni9629:1" vType="passenger1" speedFactor="0.82" vaporized=""/>
    <tripinfo id="randUni15664:1" depart="4103.00" departLane="-30648#15_0" departPos="5.10" departSpeed="0.00" departDelay="0.00" arrival="4216.00" arrivalLane="-31492#1_0" arrivalPos="186.01" arrivalSpeed="11.78" duration="113.00" routeLength="1257.59" waitingTime="0.00" waitingCount="0" stopTime="0.00" timeLoss="8.28" rerouteNo="0" devices="vehroute_randUni15664:1 tripinfo_randUni15664:1 routing_randUni15664:1" vType="pass="-30668#9-AddedOnRampEdge_0" arrivalPos="95.83" arrivalSpeed="28.26" duration="19.00" routeLength="307.26" waitingTime="0.00" waitingCount="0" stopTime="0.00" timeLoss="5.95" rerouteNo="0" devices="vehroute_0FRtoLU.20 tripinfo_0FRtoLU.20 routing_0FRtoLU.20" vType="passenger4" speedFactor="1.10" vaporized=""/>
    <tripinfo id="0FRtoDE.13" depart="1325.00" departLane="-31156#1_0" departPos="6.10" departSpeed="0.00" departDelay="1.00" arrival="1343.00" arrivalLane="-30668#9-AddedOnRampEdge_0" arrivalPos="95.83" arrivalSpeed="29.33" duration="18.00" routeLength="306.76" waitingTime="0.00" waitingCount="0" stopTime="0.00" timeLoss="5.80" rerouteNo="0" devices="vehroute_0FRtoDE.13 tripinfo_0FRtoDE.13 routing_0FRtoDE.13" vType="passenger3" speedFactor="1.10" vaporized=""/>
    <tripinfo id="0FRtoLU.21" depart="1385.00" departLane="-31156#1_0" departPos="5.10" departSpeed="0.00" departDelay="0.00" arrival="1406.00" arrivalLane="-30668#9-AddedOnRampEdge_0" arrivalPos="95.83" arrivalSpeed="26.65" duration="21.00" routeLength="307.76" waitingTime="0.00" waitingCount="0" stopTime="0.00" timeLoss="6.07" rerouteNo="0" devices="vehroute_0FRtoLU.21 tripinfo_0FRtoLU.21" vType="passenger1" speedFactor="0.94" vaporized=""/>
    <tripinfo id="0FRtoLU.22" depart="1448.00" departLane="-31156#1_0" departPos="4.60" departSpeed="0.00" departDelay="0.00" arrival="1469.00" arrivalLane="-30668#9-AddedOnRampEdge_0" arrivalPos="95.83" arrivalSpeed="28.53" duration="21.00" routeLength="308.26" waitingTime="0.00" waitingCount="0" stopTime="0.00" timeLoss="4.87" rerouteNo="0" devices="vehroute_0FRtoLU.22 tripinfo_0FRtoLU.22" vType="passenger2a" speedFactor="0.85" vaporized=""/>
    <tripinfo id="0FRtoLU.23" depart="1466.00" departLane="-31156#1_0" departPos="4.60" departSpeed="0.00" departDelay="0.00" arrival="1486.00" arrivalLane="-30668#9-AddedOnRampEdge_0" arrivalPos="95.83" arrivalSpeed="29.49" duration="20.00" routeLength="308.26" waitingTime="0.00" waitingCount="0" stopTime="0.00" timeLoss="5.97" rerouteNo="0" devices="vehroute_0FRtoLU.23 tripinfo_0FRtoLU.23 routing_0FRtoLU.23" vType="passenger2a" speedFactor="1.00" vaporized=""/>
    <tripinfo id="0FRtoLU.24" depart="1528.00" departLane="-31156#1_0" departPos="5.10" departSpeed="0.00" departDelay="0.00" arrival="1548.00" arrivalLane="-30668#9-AddedOnRampEdge_0" arrivalPos="95.83" arrivalSpeed="30.25" duration="20.00" routeLength="307.76" waitingTime="0.00" waitingCount="0" stopTime="0.00" timeLoss="7.07" rerouteNo="0" devices="vehroute_0FRtoLU.24 tripinfo_0FRtoLU.24 routing_0FRtoLU.24" vType="passenger1" speedFactor="1.07" vaporized=""/>
    <tripinfo id="0FRtoLU.25" depart="1666.00" departLane="-31156#1_0" departPos="5.10" departSpeed="0.00" departDelay="0.00" arrival="1686.00" arrivalLane="-30668#9-AddedOnRampEdge_0" arrivalPos="95.83" arrivalSpeed="25.29" duration="20.00" routeLength="307.76" waitingTime="0.00" waitingCount="0" stopTime="0.00" timeLoss="7.29" rerouteNo="0" devices="vehroute_0FRtoLU.25 tripinfo_0FRtoLU.25" vType="passenger1" speedFactor="1.04" vaporized=""/>
    <tripinfo id="0FRtoLU.26" depart="1680.00" departLane="-31156#1_0" departPos="5.10" departSpeed="0.00" departDelay="0.00" arrival="1701.00" arrivalLane="-30668#9-AddedOnRampEdge_0" arrivalPos="95.83" arrivalSpeed="27.72" duration="21.00" routeLength="307.76" waitingTime="0.00" waitingCount="0" stopTime="0.00" timeLoss="6.12" rerouteNo="0" devices="vehroute_0FRtoLU.26 tripinfo_0FRtoLU.26 routing_0FRtoLU.26" vType="passenger1" speedFactor="0.92" vaporized=""/>
    <tripinfo id="randUni16886:1" depart="1714.00" departLane="-30668#9-AddedOnRampEdge_0" departPos="4.60" departSpeed="0.00" departDelay="0.00" arrival="1723.00" arrivalLane="-30668#9-AddedOnRampEdge_0" arrivalPos="95.83" arrivalSpeed="20.98" duration="9.00" routeLength="91.23" waitingTime="0.00" waitingCount="0" stopTime="0.00" timeLoss="6.40" rerouteNo="0" devices="vehroute_randUni16886:1 tripinfo_randUni16886:1" vType="passenger2b" speedFactor="1.07" vaporized=""/>
    <tripinfo id="0FRtoLU.27" depart="1784.00" departLane="-31156#1_0" departPos="5.10" departSpeed="0.00" departDelay="0.00" arrival="1805.00" arrivalLane="-30668#9-AddedOnRampEdge_0" arrivalPos="95.83" arrivalSpeed="26.42" duration="21.00" routeLength="307.76" waitingTime="0.00" waitingCount="0" stopTime="0.00" timeLoss="6.19" rerouteNo="0" devices="vehroute_0FRtoLU.27 tripinfo_0FRtoLU.27 routing_0FRtoLU.27" vType="passenger1" speedFactor="0.90" vaporized=""/>
    <tripinfo id="0FRtoDE.14" depart="1824.00" departLane="-31156#1_0" departPos="5.60" departSpeed="0.00" departDelay="0.00" arrival="1845.00" arrivalLane="-30668#9-AddedOnRampEdge_0" arrivalPos="95.83" arrivalSpeed="27.72" duration="21.00" routeLength="307.26" waitingTime="0.00" waitingCount="0" stopTime="0.00" timeLoss="6.00" rerouteNo="0" devices="vehroute_0FRtoDE.14 tripinfo_0FRtoDE.14 routing_0FRtoDE.14" vType="passenger4" speedFactor="0.95" vaporized=""/>
    <tripinfo id="0FRtoDE.15" depart="1896.00" departLane="-31156#1_0" departPos="4.60" departSpeed="0.00" departDelay="0.00" arrival="1915.00" arrivalLane="-30668#9-AddedOnRampEdge_0" arrivalPos="95.83" arrivalSpeed="30.24" duration="19.00" routeLength="308.26" waitingTime="0.00" waitingCount="0" stopTime="0.00" timeLoss="6.29" rerouteNo="0" devices="vehroute_0FRtoDE.15 tripinfo_0FRtoDE.15 routing_0FRtoDE.15" vType="passenger2a" speedFactor="1.08" vaporized=""/>
    <tripinfo id="0FRtoLU.28" depart="1973.00" departLane="-31156#1_0" departPos="4.60" departSpeed="0.00" departDelay="0.00" arrival="1991.00" arrivalLane="-30668#9-AddedOnRampEdge_0" arrivalPos="95.83" arrivalSpeed="29.02" duration="18.00" routeLength="308.26" waitingTime="0.00" waitingCount="0" stopTime="0.00" timeLoss="5.57" rerouteNo="0" devices="vehroute_0FRtoLU.28 tripinfo_0FRtoLU.28 routing_0FRtoLU.28" vType="passenger2b" speedFactor="1.06" vaporized=""/>
    <tripinfo id="0FRtoLU.29" depart="1992.00" departLane="-31156#1_0" departPos="4.60" departSpeed="0.00" departDelay="0.00" arrival="2011.00" arrivalLane="-30668#9-AddedOnRampEdge_0" arrivalPos="95.83" arrivalSpeed="31.26" duration="19.00" routeLength="308.26" waitingTime="0.00" waitingCount="0" stopTime="0.00" timeLoss="6.23" rerouteNo="0" devices="vehroute_0FRtoLU.29 tripinfo_0FRtoLU.29" vType="passenger2a" speedFactor="1.09" vaporized="r="0.87" vaporized=""/>
    <tripinfo id="randUni5418:1" depart="6937.00" departLane="--30856#0_0" departPos="6.10" departSpeed="0.00" departDelay="0.00" arrival="7055.00" arrivalLane="--32674#5_0" arrivalPos="143.43" arrivalSpeed="12.46" duration="118.00" routeLength="445.44" waitingTime="71.00" waitingCount="2" stopTime="0.00" timeLoss="84.83" rerouteNo="1" devices="vehroute_randUni5418:1 tripinfo_randUni5418:1 routing_randUni5418:1" vType="passenger3" speedFactor="0.98" vaporized=""/>
    <tripinfo id="randUni9655:1" depart="7353.00" departLane="--31364#0_0" departPos="4.60" departSpeed="0.00" departDelay="0.00" arrival="7468.00" arrivalLane="-32674#7_0" arrivalPos="306.98" arrivalSpeed="12.86" duration="115.00" routeLength="510.82" waitingTime="63.00" waitingCount="2" stopTime="0.00" timeLoss="77.17" rerouteNo="0" devices="vehroute_randUni9655:1 tripinfo_randUni9655:1 routing_randUni9655:1" vType="passenger2b" speedFactor="0.94" vaporized=""/>
    <tripinfo id="randUni11968:1" depart="7432.00" departLane="--30856#0_0" departPos="4.60" departSpeed="0.00" departDelay="0.00" arrival="7511.00" arrivalLane="-32674#7_1" arrivalPos="306.98" arrivalSpeed="14.52" duration="79.00" routeLength="543.46" waitingTime="31.00" waitingCount="1" stopTime="0.00" timeLoss="41.42" rerouteNo="0" devices="vehroute_randUni11968:1 tripinfo_randUni11968:1 routing_randUni11968:1" vType="passenger2b" speedFactor="1.05" vaporized=""/>
    <tripinfo id="randUni5676:1" depart="7429.00" departLane="--30856#0_0" departPos="5.10" departSpeed="0.00" departDelay="0.00" arrival="7535.00" arrivalLane="--32674#5_0" arrivalPos="143.43" arrivalSpeed="13.36" duration="106.00" routeLength="446.44" waitingTime="58.00" waitingCount="2" stopTime="0.00" timeLoss="74.48" rerouteNo="1" devices="vehroute_randUni5676:1 tripinfo_randUni5676:1 routing_randUni5676:1" vType="passenger1" speedFactore_r" depart="2324.00" departLane="-31156#1_0" departPos="5.10" departSpeed="0.00" departDelay="0.00" arrival="2344.00" arrivalLane="-30668#9-AddedOnRampEdge_0" arrivalPos="95.83" arrivalSpeed="28.60" duration="20.00" routeLength="307.76" waitingTime="0.00" waitingCount="0" stopTime="0.00" timeLoss="7.13" rerouteNo="0" devices="vehroute_0FRtoLU.31 tripinfo_0FRtoLU.31 routing_0FRtoLU.31" vType="passenger1" speedFactor="1.08" vaporized=""/>
    <tripinfo id="0FRtoLU.32" depart="2413.00" departLane="-31156#1_0" departPos="4.60" departSpeed="0.00" departDelay="0.00" arrival="2434.00" arrivalLane="-30668#9-AddedOnRampEdge_0" arrivalPos="95.83" arrivalSpeed="28.48" duration="21.00" routeLength="308.26" waitingTime="0.00" waitingCount="0" stopTime="0.00" timeLoss="5.66" rerouteNo="0" devices="vehroute_0FRtoLU.32 tripinfo_0FRtoLU.32 routing_0FRtoLU.32" vType="passenger2b" speedFactor="0.91" vaporized=""/>
    <tripinfo id="0FRtoLU.33" depart="2416.00" departLane="-31156#1_0" departPos="6.10" departSpeed="0.00" departDelay="2.00" arrival="2436.00" arrivalLane="-30668#9-AddedOnRampEdge_0" arrivalPos="95.83" arrivalSpeed="27.30" duration="20.00" routeLength="306.76" waitingTime="0.00" waitingCount="0" stopTime="0.00" timeLoss="6.58" rerouteNo="0" devices="vehroute_0FRtoLU.33 tripinfo_0FRtoLU.33" vType="passenger3" speedFactor="0.98" vaporized=""/>
    <tripinfo id="0FRtoLU.34" depart="2426.00" departLane="-31156#1_0" departPos="4.60" departSpeed="0.00" departDelay="0.00" arrival="2446.00" arrivalLane="-30668#9-AddedOnRampEdge_0" arrivalPos="95.83" arrivalSpeed="27.08" duration="20.00" routeLength="308.26" waitingTime="0.00" waitingCount="0" stopTime="0.00" timeLoss="5.29" rerouteNo="0" devices="vehroute_0FRtoLU.34 tripinfo_0FRtoLU.34 routing_0FRtoLU.34" vType="passenger2b" speedFactor="0.90" vaporized=""/>
    <tripinfo id="0FRtoDE.19" depart="2480.00" departLane="-31156#1_0" departPos="5.60" departSpeed="0.00" departDelay="0.00" arrival="2504.00" arrivalLane="-30668#9-AddedOnRampEdge_0" arrivalPos="95.83" arrivalSpeed="24.41" duration="24.00" routeLength="307.26" waitingTime="0.00" waitingCount="0" stopTime="0.00" timeLoss="6.81" rerouteNo="0" devices="vehroute_0FRtoDE.19 tripinfo_0FRtoDE.19 routing_0FRtoDE.19" vType="passenger4" speedFactor="0.80" vaporized=""/>
    <tripinfo id="0FRtoLU.35" depart="2509.00" departLane="-31156#1_0" departPos="4.60" departSpeed="0.00" departDelay="0.00" arrival="2528.00" arrivalLane="-30668#9-AddedOnRampEdge_0" arrivalPos="95.83" arrivalSpeed="27.99" duration="19.00" routeLength="308.26" waitingTime="0.00" waitingCount="0" stopTime="0.00" timeLoss="6.71" rerouteNo="0" devices="vehroute_0FRtoLU.35 tripinfo_0FRtoLU.35" vType="passenger2b" speedFactor="1.07" vaporized=""/>
    <tripinfo id="0FRtoDE.20" depart="2623.00" departLane="-31156#1_0" departPos="6.10" departSpeed="0.00" departDelay="0.00" arrival="2645.00" arrivalLane="-30668#9-AddedOnRampEdge_0" arrivalPos="95.83" arrivalSpeed="25.69" duration="22.00" routeLength="306.76" waitingTime="0.00" waitingCount="0" stopTime="0.00" timeLoss="6.01" rerouteNo="0" devices="vehroute_0FRtoDE.20 tripinfo_0FRtoDE.20" vType="passenger3" speedFactor="0.85" vaporized=""/>